ATOMS
        Ar   37.794523   37.794523   37.794523
